 Gaussian 03, Revision E.01,
 Gaussian 03:  EM64L-G03RevE.01 11-Sep-2007

 ---------------------------------------------------
 #N CCSD(T, T1Diag, CONVER=5)/cc-pVQZ SCF=Tight Scan
 ---------------------------------------------------

 ---
 Ne2
 ---
 Symbolic Z-matrix:
 Charge =  0 Multiplicity = 1

 SCF Done:  E(RHF) =  -257.086452186     A.U. after    8 cycles
 CCSD(T)= -0.25768717679D+03

 The electronic state is 1-SGG.
 Alpha  occ. eigenvalues --  -32.77107 -32.77107  -1.93030  -1.92802  -0.85818
 Alpha  occ. eigenvalues --   -0.85013  -0.85013  -0.84731  -0.84731  -0.83957
 Alpha virt. eigenvalues --    0.68208   0.76984   0.76984   0.85081   0.85081
 Alpha virt. eigenvalues --    0.86264   0.92288   1.13937   1.97505   1.99117
 Alpha virt. eigenvalues --    1.99117   1.99741   1.99741   1.99835   1.99835

 Mulliken atomic charges:
              1
     1  Ne   0.000000
     2  Ne   0.000000
 Sum of Mulliken charges=   0.00000

 Dipole moment (field-independent basis, Debye):
    X=     0.0000    Y=     0.0000    Z=     0.0000  Tot=     0.0000
 Quadrupole moment (field-independent basis, Debye-Ang):
   XX=    -8.3675   YY=    -8.3675   ZZ=    -8.3776
   XY=     0.0000   XZ=     0.0000   YZ=     0.0000

 SCF Done:  E(RHF) =  -257.086658554     A.U. after    6 cycles
 CCSD(T)= -0.25768733828D+03
 SCF Done:  E(RHF) =  -257.086787690     A.U. after    5 cycles
 CCSD(T)= -0.25768742916D+03
 SCF Done:  E(RHF) =  -257.086867304     A.U. after    6 cycles
 CCSD(T)= -0.25768747594D+03
 SCF Done:  E(RHF) =  -257.086914793     A.U. after    5 cycles
 CCSD(T)= -0.25768749517D+03
 SCF Done:  E(RHF) =  -257.086941389     A.U. after    5 cycles
 CCSD(T)= -0.25768749751D+03
 SCF Done:  E(RHF) =  -257.086954566     A.U. after    5 cycles
 CCSD(T)= -0.25768749004D+03
 SCF Done:  E(RHF) =  -257.086959416     A.U. after    4 cycles
 CCSD(T)= -0.25768747750D+03
 SCF Done:  E(RHF) =  -257.086959429     A.U. after    4 cycles
 CCSD(T)= -0.25768746307D+03
 SCF Done:  E(RHF) =  -257.086956963     A.U. after    4 cycles
 CCSD(T)= -0.25768744877D+03
 CCSD(T)= -0.25768743577D+03
 SCF Done:  E(RHF) =  -257.086950073     A.U. after    3 cycles
 CCSD(T)= -0.25768742464D+03
 SCF Done:  E(RHF) =  -257.086947033     A.U. after    3 cycles
 CCSD(T)= -0.25768741549D+03
 SCF Done:  E(RHF) =  -257.086944603     A.U. after    3 cycles
 CCSD(T)= -0.25768740822D+03
 SCF Done:  E(RHF) =  -257.086942791     A.U. after    3 cycles
 CCSD(T)= -0.25768740256D+03
 SCF Done:  E(RHF) =  -257.086941514     A.U. after    3 cycles
 CCSD(T)= -0.25768739821D+03
 SCF Done:  E(RHF) =  -257.086940657     A.U. after    3 cycles
 CCSD(T)= -0.25768739488D+03
 SCF Done:  E(RHF) =  -257.086940108     A.U. after    3 cycles
 CCSD(T)= -0.25768739232D+03
 SCF Done:  E(RHF) =  -257.086939768     A.U. after    3 cycles
 CCSD(T)= -0.25768739032D+03
 SCF Done:  E(RHF) =  -257.086939567     A.U. after    3 cycles
 CCSD(T)= -0.25768738874D+03

                         Standard orientation:
 ---------------------------------------------------------------------
 Center     Atomic     Atomic              Coordinates (Angstroms)
 Number     Number      Type              X           Y           Z
 ---------------------------------------------------------------------
    1         10             0        0.000000    0.000000    2.350000
    2         10             0        0.000000    0.000000   -2.350000
 ---------------------------------------------------------------------

 SCF Done:  E(RHF) =  -257.086939452     A.U. after    3 cycles
 CCSD(T)= -0.25768738746D+03
 .6763108\CCSD(T)=-257.6871768,-257.6873383,-257.6874292,-257.6874759,-
 Normal termination of Gaussian 03 at Thu Oct 29 18:09:32 2020.
